# vtk DataFile Version 2.0
tet_velo
ASCII
DATASET UNSTRUCTURED_GRID
POINTS 29498 float
-0.713937 0.345 -2.245
-0.887803 0.555 2.465
-0.749306 0.635 -2.415
-0.845 0.944234 2.335
0.713937 0.345 -2.245
0.887803 0.555 2.465
0.749306 0.635 -2.415
0.845 0.944234 2.335
-0.805854 0.381038 -0.675
-0.845912 0.468936 0.895
-0.868417 0.825291 -0.831667
-0.862058 0.890112 0.751667
0.80584 0.381053 -0.675
0.845915 0.468933 0.895
0.868413 0.825287 -0.831667
0.862058 0.890112 0.751667
-1.5396 0.0625874 -3.42891
-1.5424 0.141474 -2.16757
-1.61654 0.192776 -0.597919
-1.67444 0.264247 0.969053
-1.71013 0.347942 2.53848
-1.71871 0.410901 3.79871
-1.71821 0.473074 5.061
-1.53474 0.244809 -3.50912
-1.53808 0.340209 -2.24632
-1.63218 0.399115 -0.674075
-1.68654 0.469194 0.896975
-1.7215 0.548808 2.46897
-1.7281 0.611181 3.72939
-1.7255 0.673767 4.99124
-1.55149 0.58585 -3.67328
-1.57066 0.681575 -2.41103
-1.6772 0.822216 -0.829692
-1.70233 0.888808 0.752592
-1.70361 0.949057 2.33368
-1.72051 1.01128 3.59355
-1.727 1.07658 4.85324
-1.59029 1.17703 -3.90949
-1.60929 1.27959 -2.64524
-1.65831 1.41633 -1.05958
-1.69321 1.51221 0.528956
-1.70586 1.57959 2.11448
-1.71326 1.63492 3.37843
-1.72021 1.69555 4.63958
-0.750258 0.0636934 -3.42805
-0.733975 0.143992 -2.16632
-0.791568 0.183503 -0.598087
-0.831313 0.26279 0.967367
-0.858685 0.351103 2.53554
-0.867422 0.412384 3.79672
-0.868393 0.473107 5.05984
-0.746899 0.241268 -3.50886
-0.879718 0.612436 3.72774
-0.876108 0.673471 4.99036
-0.758315 0.566124 -3.67492
-0.872446 1.00913 3.59381
-0.879002 1.07498 4.8533
-0.777443 1.1656 -3.91111
-0.784775 1.26989 -2.64704
-0.821439 1.41568 -1.06066
-0.850413 1.51354 0.529086
-0.860337 1.57853 2.11541
-0.867276 1.63316 3.37936
-0.874588 1.69397 4.64026
0.772169 0.0636949 -3.42805
0.770595 0.143995 -2.16632
0.82099 0.183512 -0.598087
0.854834 0.26279 0.967368
0.880491 0.351102 2.53554
0.858949 0.412384 3.79672
0.84244 0.473108 5.05984
0.756522 0.241269 -3.50886
0.85108 0.612436 3.72774
0.835989 0.673471 4.99036
0.76989 0.566125 -3.67493
0.834935 1.00913 3.59381
0.826248 1.07498 4.8533
0.829075 1.1656 -3.91111
0.843472 1.26989 -2.64704
0.850699 1.41568 -1.06066
0.842602 1.51354 0.529086
0.834944 1.57853 2.11541
0.82777 1.63316 3.37936
0.819777 1.69397 4.64026
1.55306 0.0625907 -3.42891
1.55664 0.14148 -2.16757
1.62984 0.192788 -0.597919
1.6896 0.264249 0.969053
1.72358 0.347942 2.53848
1.71262 0.410901 3.79872
1.69519 0.473074 5.061
1.53532 0.244811 -3.50912
1.52852 0.340212 -2.24632
1.62608 0.399127 -0.674075
1.6875 0.469195 0.896975
1.72197 0.548807 2.46897
1.70806 0.611181 3.72939
1.69026 0.673767 4.99124
1.55371 0.585851 -3.67328
1.56194 0.681574 -2.41103
1.66941 0.822216 -0.829692
1.69867 0.888809 0.752592
1.698 0.949057 2.33368
1.69014 1.01128 3.59355
1.67891 1.07658 4.85324
1.63202 1.17703 -3.90948
1.65257 1.27959 -2.64524
1.67837 1.41633 -1.05958
1.68468 1.51221 0.528956
1.68095 1.57959 2.11448
1.67446 1.63492 3.37843
1.66646 1.69555 4.63958
-0.734502 0.49 -2.33288
0 0.342756 -2.24724
-0.781432 0.341483 -1.46
-0.841825 0.749617 2.37542
0 0.549292 2.47071
-0.884366 0.494459 1.68
0 0.665179 -2.44518
-0.825849 0.747133 -1.62333
0 0.943787 2.33455
-0.855282 0.918926 1.54333
0.734471 0.49 -2.33285
0.781443 0.341472 -1.46
0.841825 0.749617 2.37542
0.884374 0.494452 1.68
0.825834 0.747118 -1.62333
0.855274 0.918918 1.54333
-0.825921 0.424949 0.11
-0.899847 0.603165 -0.753333
-7.21238e-06 0.28126 -0.675
-0.872807 0.679524 0.823334
1.59104e-06 0.281273 0.895
-0.865723 0.858187 -0.04
-2.12051e-06 1.0907 -0.831667
2.13368e-07 1.51882 0.751667
0.825919 0.424951 0.11
0.899847 0.60317 -0.753333
0.872807 0.679522 0.823334
0.865723 0.858187 -0.04
-0.823623 0.546582 -1.54167
-0.891486 0.641344 0.035
-0.885773 0.71457 1.61167
-3.60619e-06 0.311312 -1.46
-2.81067e-06 0.281267 0.11
7.95522e-07 0.348956 1.68
0 0.49 -2.41289
0 0.749617 2.25411
-1.06026e-06 1.02514 -1.62333
-9.53572e-07 1.52918 -0.04
1.06684e-07 1.16708 1.54333
0.823659 0.546585 -1.54167
0.891487 0.641346 0.035
0.885773 0.71457 1.61167
-1.12601 0.342604 -2.24566
-0.723956 0.244496 -2.20566
-0.730418 0.293134 -2.87693
-1.30465 0.551904 2.46698
-0.873244 0.453051 2.50027
-0.883761 0.583718 3.09637
-1.15998 0.658287 -2.41302
-0.753811 0.600562 -3.04496
-0.767041 0.952447 -2.53102
-1.2743 0.946646 2.33434
-0.858723 0.976682 2.96441
-0.852668 1.26138 2.2252
0.742266 0.244498 -2.20566
0.735229 0.293134 -2.87693
1.12123 0.342606 -2.24566
0.884147 0.453051 2.50027
0.869441 0.583718 3.09637
1.30489 0.551903 2.46698
0.759598 0.600562 -3.04496
0.796389 0.952447 -2.53102
1.15562 0.658287 -2.41302
0.839967 0.976682 2.96441
0.839972 1.26138 2.2252
1.2715 0.946645 2.33434
-1.21902 0.390077 -0.674537
-0.798711 0.282271 -0.636544
-1.26623 0.469065 0.895988
-0.838612 0.365863 0.931184
-1.27281 0.823753 -0.830679
-0.844928 1.12048 -0.946165
-1.28219 0.88946 0.75213
-0.856235 1.20182 0.640376
0.813415 0.282282 -0.636544
1.21596 0.39009 -0.674537
0.850375 0.365861 0.931184
1.26671 0.469064 0.895988
0.859556 1.12048 -0.946165
1.26891 0.823752 -0.830679
0.85233 1.20182 0.640376
1.28037 0.889461 0.752129
-1.541 0.102031 -2.79824
-1.53717 0.153698 -3.46902
-1.14493 0.0631404 -3.42848
-1.57947 0.167125 -1.38275
-1.54024 0.240841 -2.20695
-1.13819 0.142733 -2.16695
-1.64549 0.228512 0.185567
-1.62436 0.295946 -0.635997
-1.20405 0.18814 -0.598003
-1.69229 0.306095 1.75377
-1.68049 0.36672 0.933014
-1.25288 0.263519 0.96821
-1.71442 0.379422 3.1686
-1.71582 0.448375 2.50373
-1.28441 0.349523 2.53701
-1.71846 0.441987 4.42986
-1.7234 0.511041 3.76405
-1.29307 0.411642 3.79772
-1.72185 0.57342 5.02612
-1.2933 0.473091 5.06042
-1.53641 0.292509 -2.87772
-1.54311 0.41533 -3.5912
-1.14082 0.243039 -3.50899
-1.58513 0.369662 -1.4602
-1.55437 0.510892 -2.32868
-1.65936 0.434154 0.11145
-1.65469 0.610665 -0.751883
-1.70402 0.509001 1.68297
-1.69443 0.679001 0.824784
-1.7248 0.579995 3.09918
-1.71256 0.748932 2.40132
-1.7268 0.642474 4.36031
-1.7243 0.81123 3.66147
-1.30391 0.611809 3.72857
-1.72625 0.875174 4.92224
-1.3008 0.673619 4.9908
-1.56107 0.633713 -3.04215
-1.57089 0.881442 -3.79138
-1.1549 0.575987 -3.6741
-1.62393 0.751895 -1.62036
-1.58998 0.980583 -2.52814
-1.68976 0.855512 -0.0385498
-1.66775 1.11927 -0.944636
-1.70297 0.918932 1.54313
-1.69777 1.20051 0.640774
-1.71206 0.980167 2.96361
-1.70474 1.26433 2.22408
-1.72376 1.04393 4.22339
-1.71689 1.3231 3.48599
-1.29648 1.0102 3.59368
-1.72361 1.38606 4.74641
-1.303 1.07578 4.85327
-1.59979 1.22831 -3.27736
-1.18386 1.17132 -3.9103
-1.6338 1.34796 -1.85241
-1.19703 1.27474 -2.64614
-1.67576 1.46427 -0.265312
-1.23987 1.41601 -1.06012
-1.69954 1.5459 1.32172
-1.27181 1.51287 0.529021
-1.70956 1.60725 2.74645
-1.2831 1.57906 2.11494
-1.71674 1.66523 4.00901
-1.29027 1.63404 3.37889
-1.2974 1.69476 4.63992
-0.742116 0.103843 -2.79719
-0.748578 0.152481 -3.46846
0.0109557 0.0636941 -3.42805
-0.762772 0.163748 -1.3822
0.0183097 0.143994 -2.16632
-0.811441 0.223147 0.18464
0.0147109 0.183508 -0.598087
-0.844999 0.306947 1.75145
0.0117607 0.26279 0.967368
-0.863054 0.381743 3.16613
0.0109026 0.351103 2.53554
-0.867908 0.442746 4.42828
-0.87357 0.51241 3.76223
-0.00423672 0.412384 3.79672
-0.87225 0.573289 5.0251
-0.0129766 0.473108 5.05984
-0.752607 0.403696 -3.59189
0.00481154 0.241269 -3.50886
-0.877913 0.642954 4.35905
-0.876082 0.810783 3.66078
-0.0143193 0.612436 3.72774
-0.877555 0.874225 4.92183
-0.0200592 0.673471 4.99036
-0.767879 0.865861 -3.79302
0.0057874 0.566124 -3.67493
-0.875724 1.04205 4.22355
-0.869861 1.32114 3.48658
-0.0187554 1.00913 3.59381
-0.876795 1.38447 4.74678
-0.0263769 1.07498 4.8533
-0.781109 1.21775 -3.27908
0.0258157 1.1656 -3.91111
-0.803107 1.34279 -1.85385
0.0293482 1.26989 -2.64704
-0.835926 1.46461 -0.265788
0.0146304 1.41568 -1.06066
-0.855375 1.54603 1.32225
-0.00390585 1.51354 0.529086
-0.863806 1.60585 2.74738
-0.0126961 1.57853 2.11541
-0.870932 1.66356 4.00981
-0.0197526 1.63316 3.37936
-0.0274051 1.69397 4.64026
0.771382 0.103845 -2.79719
0.764345 0.152482 -3.46845
1.16262 0.0631428 -3.42848
0.795792 0.163754 -1.3822
1.16362 0.142738 -2.16695
0.837912 0.223151 0.18464
1.22541 0.18815 -0.598003
0.867662 0.306946 1.75145
1.27222 0.26352 0.96821
0.86972 0.381743 3.16613
1.30203 0.349522 2.53701
0.850694 0.442746 4.42828
0.855014 0.51241 3.76223
1.28578 0.411642 3.79772
0.839215 0.57329 5.0251
1.26881 0.473091 5.06042
0.763206 0.403697 -3.59189
1.14592 0.24304 -3.50899
0.843535 0.642953 4.35905
0.843007 0.810783 3.66078
1.27957 0.611808 3.72857
0.831119 0.874225 4.92183
1.26312 0.673619 4.9908
0.799482 0.865861 -3.79302
1.1618 0.575988 -3.6741
0.830592 1.04205 4.22356
0.831353 1.32114 3.48658
1.26254 1.0102 3.59368
0.823013 1.38447 4.74678
1.25258 1.07578 4.85327
0.836273 1.21775 -3.27908
1.23055 1.17132 -3.9103
0.847086 1.34279 -1.85385
1.24802 1.27474 -2.64614
0.84665 1.46461 -0.265788
1.26453 1.41601 -1.06012
0.838773 1.54604 1.32225
1.26364 1.51287 0.529021
0.831357 1.60585 2.74738
1.25795 1.57906 2.11494
0.823774 1.66356 4.00981
1.25112 1.63404 3.37889
1.24312 1.69476 4.63992
1.55485 0.102035 -2.79824
1.54419 0.153701 -3.46902
1.59324 0.167134 -1.38275
1.54258 0.240846 -2.20695
1.65972 0.228519 0.185567
1.62796 0.295958 -0.635997
1.70659 0.306095 1.75377
1.68855 0.366722 0.933014
1.7181 0.379421 3.1686
1.72277 0.448374 2.50373
1.7039 0.441988 4.42986
1.71034 0.511041 3.76405
1.69272 0.573421 5.02612
1.53192 0.292511 -2.87772
1.54452 0.415331 -3.5912
1.5773 0.369669 -1.4602
1.54523 0.510893 -2.32868
1.65679 0.434161 0.11145
1.64775 0.610672 -0.751883
1.70474 0.509001 1.68297
1.69309 0.679002 0.824784
1.71502 0.579994 3.09918
1.70998 0.748932 2.40132
1.69916 0.642474 4.36031
1.6991 0.81123 3.66147
1.68458 0.875174 4.92224
1.55783 0.633712 -3.04215
1.59286 0.881442 -3.79138
1.61568 0.751895 -1.62036
1.60726 0.980583 -2.52814
1.68404 0.855513 -0.0385499
1.67389 1.11928 -0.944636
1.69834 0.918933 1.54313
1.69168 1.20051 0.640774
1.69407 0.980167 2.96361
1.68947 1.26433 2.22408
1.68452 1.04393 4.22339
1.6823 1.3231 3.48599
[...]
POINT_DATA 29498
VECTORS point_vectors float
-4.24719 -4.59083 12.8411
0.384923 0.0824566 2.0946
-5.52302 0.943005 6.91841
0.372268 -0.284765 2.12298
4.21914 -4.56858 12.7652
-0.333526 0.0850611 1.97889
5.52752 0.943089 6.92501
-0.401896 -0.189854 2.05437
0.00680923 -0.00446735 0.192462
0 0 0
-0.0117192 -0.0227947 0.159636
0.0256835 0.0747475 0.399597
-0.00708453 -0.00473492 0.194558
0 0 0
0.0117081 -0.0227824 0.159595
-0.0261015 0.0758906 0.400334
-0.554253 -0.214861 19.8545
-1.23408 -0.530085 20.4921
-0.51425 -0.378607 21.3143
0.0733127 -0.134269 21.5016
0.629174 0.0373752 21.3961
0.842096 -0.0413168 21.2103
0.698041 -0.111899 21.1128
-0.534355 -0.150436 19.8134
-1.41407 -0.433022 20.4041
-0.67566 -0.411421 21.3177
0.014286 -0.192985 21.5224
0.625989 -0.0522776 21.4137
0.944544 -0.0439681 21.1049
0.756733 -0.178207 21.1725
-0.473572 -0.0385675 19.7953
-1.48571 -0.0928457 20.1779
-0.995541 -0.280388 21.2149
-0.166086 -0.257438 21.5534
0.523705 -0.223211 21.4617
0.783957 -0.289565 20.89
0.732985 -0.219599 20.8632
-0.353764 0.0988989 19.8437
-1.04051 0.336786 20.0238
-1.11319 0.217254 20.9605
-0.444946 -0.0943679 21.5415
0.238649 -0.278529 21.4119
0.510085 -0.418975 21.1042
0.479144 -0.271447 21.0254
-0.551635 -0.491349 19.2841
-2.71412 -3.45111 21.3933
0.142797 -0.123646 14.2494
0.94042 -0.361165 10.6579
1.10536 0.889552 11.9357
1.85321 1.08956 16.432
1.30822 0.637977 16.7826
-0.549019 -0.365053 19.2016
2.12288 0.794541 12.5486
1.33008 0.417505 15.9983
-0.473689 -0.0935832 19.2624
1.72225 -0.40271 13.5368
1.1277 -0.466166 17.0378
-0.300574 0.181164 19.5228
-1.7505 1.70183 18.8943
-2.47622 1.48511 20.6038
-1.14594 0.0211325 21.1161
0.340261 -0.581403 20.2318
0.647642 -0.976596 20.9494
0.628311 -0.975 19.1252
0.56321 -0.48048 19.2979
2.7793 -3.16801 21.3087
-0.157282 -0.154955 15.3694
-0.824913 -0.388204 11.8335
-0.985654 0.695262 12.3621
-1.6 1.10379 16.0176
-1.47017 0.292202 16.2438
0.555582 -0.360762 19.1913
-1.69446 1.05859 11.7068
-1.23264 0.329243 15.0238
0.476307 -0.0944472 19.2615
-1.80993 -0.226035 11.6404
-1.01399 -0.363888 16.1802
0.303526 0.1797 19.5415
1.75259 1.53904 19.0089
2.4377 1.37273 20.6412
1.13788 0.0348444 21.0128
-0.406865 -0.567111 19.7892
-0.690095 -0.953199 20.5832
-0.800359 -1.00342 18.9191
0.549257 -0.215852 19.8527
1.20992 -0.524625 20.4948
0.508004 -0.373282 21.3029
-0.0751561 -0.131433 21.4957
-0.577899 0.0319623 21.3678
-0.822422 0.132448 20.8778
-0.975715 -0.0719665 20.6767
0.530377 -0.152603 19.8004
1.41944 -0.44218 20.3966
0.676285 -0.41816 21.3205
-0.0174903 -0.190009 21.5173
-0.582548 -0.0516279 21.3909
-0.87461 0.0835003 20.9095
-0.876785 -0.100802 20.7353
0.468876 -0.0392772 19.7818
1.4971 -0.0933801 20.168
1.00214 -0.283493 21.2187
0.165335 -0.255157 21.5438
-0.498672 -0.201539 21.4333
-0.87725 -0.316885 21.0263
-0.744497 -0.201622 20.7941
0.353621 0.0958881 19.86
1.00032 0.315248 20.0469
1.09132 0.209617 20.9562
0.44322 -0.0930296 21.5413
-0.244684 -0.271859 21.4244
-0.513539 -0.395791 21.1305
-0.485879 -0.304908 21.0197
-0.723127 -0.0830382 1.16207
0.000147782 -0.303171 0.893814
0.13156 -0.140538 1.60276
0.042574 0.0120142 0.3333
-0.0429211 -0.0559579 -0.0376223
0.00925923 0.00767209 0.794852
7.05986e-05 0.111316 0.127595
-0.0865253 -0.0509077 0.659027
-0.070222 0.466445 -0.2445
0.0154887 0.0444348 0.243908
0.700204 -0.0803552 1.12745
-0.131683 -0.140555 1.60335
-0.0261431 0.0119839 0.296294
-0.00848047 0.00906723 0.788781
0.0865124 -0.0516261 0.657128
-0.0161593 0.0470567 0.243721
-0.000910662 0.00189276 0.0879166
-0.00954477 -0.032675 0.326371
-1.08641e-08 -8.94786e-08 1.68875e-05
0 0 0
-1.12097e-06 1.85142e-06 0.000376447
0.00249127 0.0224646 0.142099
0 0 0
-6.94594e-06 -1.97556e-05 0.00195105
0.000906424 0.00186789 0.0875678
0.00953283 -0.0326848 0.326407
0 0 0
-0.00249375 0.0224803 0.14206
-0.00918698 -0.0495837 0.453709
0.000884267 0.0022673 0.0288395
0.00143077 0.00505237 0.0421409
-4.77816e-06 -0.000378971 0.00660885
-1.61391e-08 -1.1622e-08 1.30618e-05
0 0 0
-0.000107292 -0.141887 0.163321
0 0 0
0 0 0
0.00022462 0.01619 0.221511
4.14296e-05 0.000877666 -0.00159137
0.00988185 -0.0490814 0.454543
-0.000891235 0.00228585 0.0290365
-0.00141274 0.00522569 0.0408725
-2.62004 -1.07878 20.5169
-4.16247 -4.96927 22.0542
-1.69461 -1.29467 18.1815
0.988076 -0.0105874 21.4115
0.827163 0.615801 7.06865
1.11932 0.56842 9.21006
-2.91466 -0.203959 19.8313
-1.43308 -0.185959 18.1596
-3.81325 2.36743 17.5407
0.827089 -0.339122 21.307
1.1001 0.0181025 9.76673
1.11524 0.0586001 14.0812
4.20187 -4.63626 21.8983
1.70379 -1.29163 18.1908
2.6428 -1.09925 20.518
-0.710399 0.536668 7.37068
-0.667536 0.677376 8.10783
-0.893795 -0.0105027 21.3483
1.43811 -0.183318 18.1859
3.75033 2.12576 17.7986
2.94642 -0.201239 19.8186
-0.925947 0.38359 8.46318
-1.24808 0.139295 13.6689
-0.787599 -0.283427 21.2117
-0.624839 -0.747774 21.6524
0.116712 -0.00477848 5.8807
0.167026 -0.284123 21.5377
0.137483 -0.555254 3.35265
-1.55989 -0.651066 21.5159
-3.13978 -0.531568 13.6551
-0.141285 -0.442092 21.5649
0.483943 0.809466 10.9443
-0.159015 -0.00745992 6.85506
0.620911 -0.749998 21.6451
-0.176026 -0.748139 4.57043
-0.16789 -0.279914 21.5336
3.16765 -0.492461 14.7108
1.56676 -0.657409 21.5207
-0.514591 0.852269 10.7056
0.135234 -0.436718 21.5554
-0.984076 -0.409283 19.9725
-0.549295 -0.184032 19.8188
-0.604622 -0.337881 19.6068
-0.907925 -0.488446 21.0436
-1.34432 -0.499027 20.4557
-1.95701 -1.23943 20.6799
-0.188857 -0.249175 21.4567
-0.581116 -0.400337 21.3276
-0.461062 -0.55599 21.5942
0.331652 -0.040076 21.4943
0.0440106 -0.168182 21.5184
0.22199 -0.152398 21.579
0.786736 0.0768078 21.1644
0.635599 -0.00745087 21.4004
1.01016 0.206591 21.4599
0.874157 -0.047839 21.3831
0.90931 -0.0646864 21.2064
1.44841 0.201343 20.8055
0.727387 -0.145053 21.1426
0.830844 0.040123 20.8808
-1.039 -0.313215 19.8538
-0.50369 -0.0860953 19.8067
-0.599676 -0.243786 19.5354
-1.08989 -0.432462 21
-1.46581 -0.272522 20.3108
-0.29279 -0.30808 21.4738
-0.821572 -0.386106 21.2813
0.289645 -0.111643 21.5061
-0.0533892 -0.240245 21.5391
0.785237 -0.0202025 21.2376
0.616754 -0.15006 21.4677
0.88506 -0.113133 21.0848
0.903384 -0.169411 21.0387
1.44825 0.0307387 21.214
0.82993 -0.209291 20.6671
0.841532 -0.220677 20.3002
-0.926692 -0.0656376 19.7848
-0.422835 0.0479601 19.8016
-0.529739 -0.0724659 19.5247
-1.32652 -0.208676 20.8491
-1.28572 0.191045 20.0492
-0.567354 -0.315371 21.4864
-1.1429 -0.0626425 21.0993
0.182654 -0.215725 21.5534
-0.310901 -0.200286 21.55
0.728343 -0.230584 21.2361
0.391396 -0.288803 21.4778
0.740489 -0.294665 20.8852
0.65706 -0.358054 21.1733
1.34554 -0.469185 20.5454
0.575595 -0.240409 21.0408
0.791519 -0.334834 19.9278
-0.647732 0.192295 19.8254
-0.345349 0.136548 19.6896
-1.2027 0.341495 20.5473
-1.45961 0.746521 19.6358
-0.868423 0.047275 21.3537
-1.7396 0.490236 20.9444
-0.0441361 -0.187521 21.5492
-0.690946 -0.10541 21.8272
0.394976 -0.344448 21.273
0.280877 -0.445612 21.5921
0.529282 -0.556149 20.8551
0.59914 -0.66203 21.0008
0.521135 -0.484867 21.0718
-1.51426 -1.67687 18.7348
-0.557478 -0.42054 19.2317
0.00712857 -0.67904 18.9266
-0.352464 -0.85723 18.3984
0.0592317 -5.97373 22.3268
0.269599 -0.0184094 11.6808
-0.0143955 -0.144786 6.99131
0.578203 0.0733737 10.0134
-0.00490001 0.0199932 1.40958
1.48633 1.18557 14.0852
-0.662472 -0.369806 1.9878
1.84374 1.01171 14.5557
1.98805 0.94205 14.4903
0.426369 -0.483538 1.24811
1.31915 0.527741 16.3905
0.0641774 0.299904 9.59564
-0.511762 -0.207102 19.2197
0.000821911 -0.498704 18.829
2.01891 0.640508 14.7273
1.80085 0.275664 11.5618
0.749486 -1.87808 -4.23834
1.36982 0.170322 15.2615
0.215029 0.289348 6.15246
-0.390809 0.0902244 19.3766
0.00405127 -0.119442 18.9295
1.99253 -0.492649 16.6504
1.42203 -0.759921 17.1564
0.589782 -1.49161 -3.93388
0.762415 -0.917211 18.0684
0.127648 -0.885892 1.23373
-0.715437 0.540667 19.0982
0.0125764 0.226651 19.3471
-2.2452 1.96653 20.585
0.0877957 3.14255 17.7865
-3.21956 0.908879 22.0257
0.0598774 3.29864 19.3426
-0.0286459 -0.237751 20.4204
0 0 0
0.493275 -0.815606 20.5023
0.0328407 -0.272331 7.86915
0.622878 -0.965329 20.021
-0.0678241 -1.07971 13.4616
-0.0460053 -1.18048 18.171
1.52973 -1.57714 18.8048
0.567027 -0.410857 19.2377
0.600447 -0.329333 19.6165
0.459646 -0.896323 19.169
1.88198 -1.18202 20.6378
-0.26843 -0.0288933 12.8119
0.473193 -0.555957 21.5754
-0.610229 0.0643948 11.1531
-0.209837 -0.153573 21.6325
-1.25811 1.05617 13.7651
-0.894635 0.168613 21.4149
-1.59549 0.994356 14.6345
-1.68312 1.0497 13.9875
-1.38693 0.213095 21.1299
-1.41002 0.248041 15.6654
-1.25645 -0.208113 20.5217
0.516445 -0.204878 19.209
0.601309 -0.243016 19.5379
-1.78583 0.739118 13.7427
-1.55263 0.66384 9.60355
-1.43693 0.0458485 21.2544
-0.927687 0.336609 14.383
-1.03037 -0.265585 20.2164
0.393456 0.0804858 19.4044
0.534928 -0.0703651 19.5325
-1.8229 -0.439951 14.6259
-1.49911 -0.619895 16.5393
-1.32742 -0.376905 20.383
-0.830052 -0.92449 17.9382
-0.657425 -0.365709 19.6016
0.733387 0.515194 19.1635
0.343277 0.131617 19.714
2.23503 1.80079 20.5829
1.393 0.670163 19.7105
3.14857 0.866059 22.0191
1.69461 0.461775 20.9499
-0.0362964 -0.210271 20.0923
0.6908 -0.106585 21.8326
-0.533894 -0.761256 20.1432
-0.294188 -0.438143 21.5834
-0.668136 -1.0205 19.7686
-0.622871 -0.675665 21.0746
-0.554901 -0.555982 20.8112
0.97079 -0.409743 19.9877
0.545002 -0.185856 19.8136
0.897571 -0.484625 21.0326
1.32842 -0.49759 20.4489
0.184486 -0.246314 21.4456
0.575843 -0.39806 21.3241
-0.317039 -0.0420057 21.4639
-0.0465895 -0.164865 21.5137
-0.727835 0.0458353 21.203
-0.587286 -0.0141519 21.3804
-0.851947 0.0686905 20.8442
-0.852207 0.126701 20.8772
-0.925554 -0.0879066 20.7055
1.03798 -0.314384 19.8459
0.496864 -0.0853629 19.789
1.09263 -0.438506 21.0027
1.47471 -0.277544 20.3005
0.289337 -0.309433 21.4704
0.824758 -0.393789 21.2839
-0.282699 -0.108875 21.4855
0.0538924 -0.237913 21.5234
-0.752865 -0.0183822 21.2576
-0.575082 -0.129663 21.4335
-0.924346 -0.0633412 20.628
-0.867197 -0.105033 20.9266
-0.82693 -0.0627073 20.8074
0.924943 -0.067327 19.7751
0.425013 0.0448631 19.8027
1.33654 -0.20736 20.8502
1.26765 0.186745 20.0658
0.568271 -0.314053 21.4837
1.1325 -0.0591873 21.0982
-0.182323 -0.20767 21.5369
0.309004 -0.20113 21.5456
-0.686212 -0.212811 21.2332
-0.386271 -0.268954 21.4508
-0.779077 -0.330285 21.2668
-0.663661 -0.337108 21.1554
-0.509357 -0.259704 20.9626
0.633803 0.187511 19.8438
1.1579 0.329028 20.544
0.859582 0.045309 21.3491
0.0393349 -0.183497 21.5406
-0.392356 -0.326553 21.2768
-0.557928 -0.537472 20.9192
-1.02957 -0.363571 19.9019
-1.64603 -1.50784 18.4474
-1.35641 -0.843734 19.5912
-1.46476 -0.638262 19.3096
-0.606737 -0.292452 19.5746
-2.30303 -1.20154 20.5953
-1.00263 -0.472388 21.028
0.436909 -0.607305 10.6456
-1.08117 -0.841138 21.2953
-1.34742 -0.826173 21.3152
-0.528024 -0.647688 21.6374
-0.239741 -0.281257 21.4673
0.0564875 0.00560158 4.8578
-0.0689732 -0.305901 21.6003
-0.112126 -0.479464 21.5534
0.218132 -0.225492 21.5663
0.309617 -0.0801277 21.5028
0.158176 -0.0550391 4.39388
0.559913 0.0147932 21.5423
0.50795 -0.138133 21.5289
1.02257 0.091568 21.4377
0.796752 0.0244395 21.2136
1.28525 0.911827 11.3447
1.26036 0.344026 21.038
1.30749 0.0439705 21.1694
1.44833 0.116041 21.0097
0.853894 -0.054297 21.3188
1.91138 0.905504 14.5248
1.24419 0.222472 20.3933
1.42349 -0.136054 20.4455
0.836188 -0.0902772 20.5905
-0.996378 -0.185668 19.8147
-1.61538 -0.724638 18.0249
-1.32333 -0.119462 19.2054
-0.576794 -0.14901 19.515
-2.96756 -0.69904 20.1899
-1.20824 -0.349147 20.942
-2.03766 -0.473594 21.0851
-1.06978 -0.837533 21.6662
-0.396785 -0.337123 21.4791
-0.73278 -0.639337 21.8131
0.0343004 -0.391164 21.4853
0.255728 -0.172882 21.5277
0.321578 -0.310053 21.4294
0.920866 -0.19351 21.3009
0.783822 -0.153752 21.341
0.699915 0.230579 6.87526
1.13727 -0.444272 21.1162
1.45153 -0.228809 20.9197
0.847313 -0.256039 20.9922
2.2061 0.131837 15.1743
1.40463 -0.460676 20.0827
0.888364 -0.324623 19.7317
-0.800973 0.11761 19.7763
-1.053 0.381115 18.6057
-0.756742 0.343575 19.4961
-0.44486 0.081036 19.5972
-2.2799 0.585831 19.5513
-1.34543 0.0970371 20.6922
-3.0472 0.928778 18.4187
-1.75254 0.80775 20.5319
-1.94801 -0.0967814 21.2038
-0.733846 -0.172798 21.4519
-0.739049 -0.356309 11.0657
-1.5171 0.135854 21.6407
-0.472462 -0.379127 21.8066
0.0803597 -0.223156 21.5618
1.05638 0.994464 11.8476
-0.111066 -0.259833 21.7912
0.539938 -0.500445 21.5644
0.583714 -0.3526 21.2915
1.12776 -0.433228 15.9802
0.46636 -0.578616 21.4167
0.909451 -0.708159 21.3371
0.655318 -0.533551 20.5779
1.30449 -0.988028 19.0952
0.653333 -0.70114 20.9438
0.654701 -0.427494 20.0143
1.65671 -1.47629 18.474
0.0399487 -2.69129 17.734
0.005639 -2.16986 16.7725
0.00522825 -0.572205 18.8831
0.0152241 -7.71209 22.0406
-0.34503 -0.699968 11.464
0.000875315 -0.791323 11.9314
-0.00276479 -0.00707793 1.65018
-0.0637495 0.0127936 6.01638
-0.012112 -0.0135034 3.77793
0 0 0
-0.183562 -0.0499668 5.18293
-0.0514274 0.167882 2.0313
-0.697331 -0.777827 -0.357226
-0.930816 0.886445 10.6697
-0.647633 -0.104936 -0.651522
0.142492 -1.15257 -4.65859
0.786308 -1.56729 -3.91506
-1.75952 0.937162 13.885
0.367231 1.44837 6.70158
0.358269 0.532212 1.75028
0.139603 0.294626 7.87405
1.62114 -0.716681 18.0412
0.00784399 -0.238289 16.8547
0.00210275 -0.269264 18.8762
-0.297578 0.621907 5.49386
0.385458 -0.557073 -2.48746
0.766153 -1.78264 -4.12704
-1.85281 0.343939 13.5067
-0.0381893 -1.67112 -4.53165
0.307803 0.0855944 2.57403
1.05921 0.366656 18.6632
0.0422593 0.804968 18.5538
0.00547817 0.137077 19.1197
0.0822113 5.35349 14.2632
3.11968 0.916422 19.2191
0.0820246 3.92651 20.6088
0.0368193 0.6344 3.80577
0.834371 -0.450921 11.4875
0 0 0
0 0 0
-1.12306 1.04397 11.4122
0.0154562 -0.00540637 3.62857
-0.426332 0.69926 -1.7021
-1.20769 -0.222481 15.3753
-0.0665338 -0.509845 10.8866
-0.0800147 -0.703426 2.89976
-1.28551 -1.00511 18.4539
0.0954044 -1.18344 14.3457
-0.00783517 -1.17453 12.1072
1.02218 -0.362703 19.9028
1.35532 -0.824858 19.6089
1.46576 -0.639682 19.3035
0.605848 -0.291722 19.5762
2.27043 -1.17151 20.587
0.994046 -0.470954 21.0249
1.07501 -0.824134 21.2675
1.35103 -0.832135 21.3162
0.536601 -0.644141 21.6261
0.235926 -0.280249 21.4591
0.0872975 -0.305121 21.6126
0.108492 -0.478061 21.5429
-0.213072 -0.221269 21.6028
-0.298316 -0.0778956 21.4755
-0.531516 0.00819275 21.5565
-0.496408 -0.131091 21.4956
-0.914572 0.0736889 21.3805
-0.751837 0.0298571 21.211
-1.14142 0.310708 21.0379
-1.1953 0.0553866 21.0991
-1.41193 0.129472 21.1922
-0.888386 0.00276402 20.7358
-1.36758 0.306101 20.3416
-1.36733 0.0876399 21.0177
-1.18264 -0.265828 20.4686
0.994583 -0.192222 19.8033
1.32376 -0.114346 19.2128
0.578119 -0.145831 19.5204
2.9833 -0.71199 20.184
1.21928 -0.356526 20.9417
2.05004 -0.478046 21.0913
1.06887 -0.84374 21.6695
0.39524 -0.338184 21.4784
0.729472 -0.642746 21.7839
-0.0352689 -0.38694 21.4774
-0.249881 -0.166339 21.5112
-0.330089 -0.29021 21.3906
-0.845153 -0.159774 21.2245
-0.741725 -0.128362 21.3079
-1.06219 -0.352608 20.9911
-1.44273 -0.188378 20.9954
-0.984423 -0.200982 20.7145
-1.38272 -0.423841 19.2723
-0.773991 -0.234109 19.8163
0.791402 0.115738 19.7923
0.745181 0.320983 19.543
0.444886 0.0770118 19.6167
2.21701 0.537059 19.601
1.32648 0.0947096 20.694
1.70485 0.744816 20.5355
1.91297 -0.0946393 21.1951
0.733082 -0.173068 21.4445
1.48674 0.12985 21.6263
0.46823 -0.380642 21.7908
-0.0868826 -0.215636 21.5527
0.100912 -0.259514 21.789
-0.558252 -0.465826 21.4764
-0.557495 -0.32697 21.2787
-0.468478 -0.55793 21.4167
-0.93189 -0.711036 21.3675
-0.667007 -0.493099 20.9338
-0.686215 -0.694604 21.0581
-0.583162 -0.476127 19.8353
-1.43221 -0.762854 19.4225
-1.21513 -0.84256 21.314
-0.0720444 -0.391836 21.5988
0.55467 -0.0668703 21.5501
1.31668 0.175766 21.2231
1.31225 0.117732 20.356
-1.41037 -0.346938 19.2262
-1.66414 -0.761652 21.2413
-0.362517 -0.629491 21.6789
0.415135 -0.236423 21.3643
1.26694 -0.203482 21.0652
1.50776 -0.422015 20.2004
-1.03388 0.217572 19.3268
-2.19503 0.301993 20.8173
-1.29423 -0.419956 21.85
0.0940777 -0.37007 21.7335
0.787347 -0.633145 21.3735
1.17921 -0.699513 20.1173
0.0159207 -2.50572 17.1412
-0.0138224 -0.248344 4.0958
0 0 0
0 0 0
-0.221968 -0.924486 -3.99824
0.463751 1.05387 3.24774
0.00712595 -1.12604 16.5991
0.622524 -1.10493 -3.88049
0.140043 -0.539481 -1.44246
0.0252631 0.633465 17.7039
0.0345857 1.96629 10.9803
0 0 0
0.0237252 0.402367 -0.765411
-0.276412 0.0894196 0.841409
0.102502 -1.37321 4.85149
1.42584 -0.75547 19.4355
1.21397 -0.834792 21.2915
0.0818832 -0.389004 21.6073
-0.53532 -0.0657336 21.5178
-1.19472 0.155162 21.2149
-1.36746 0.19687 20.6797
1.40645 -0.343968 19.2271
1.66497 -0.764962 21.247
0.358972 -0.62834 21.6563
-0.411751 -0.221993 21.3367
-1.15193 -0.151906 21.0107
-1.36221 -0.178119 20.7076
1.01621 0.208345 19.3626
2.14206 0.291698 20.8049
1.2812 -0.415823 21.8384
-0.110267 -0.361519 21.6948
-0.773964 -0.590258 21.348
-1.09775 -0.63689 19.9074
-3.27418 -2.06768 4.90886
-0.0703288 -0.395942 1.50745
0.0875937 -0.240661 1.90364
-0.0673366 -0.192489 0.451586
-0.0769452 0.00149125 0.0055987
0 0 0
-5.45117 -0.942844 6.95976
-0.158845 0.297129 0.431755
-0.0112975 0.0100311 0.135931
0.241586 0.0260654 1.1041
-0.0384413 0.0753035 -0.091051
0.0923776 0.0805739 0.58959
0.0699792 -0.394288 1.50604
3.25757 -2.05737 4.87782
-0.0889371 -0.237814 1.88955
0.0824487 -0.0273404 -0.0125715
0.0852591 -0.177443 0.404093
0 0 0
0.158022 0.296098 0.431898
5.4519 -0.944274 6.96082
0.0113789 0.0100194 0.136334
-0.0112192 0.148974 -0.165406
-0.205699 0.060016 1.01836
-0.104429 0.0926984 0.588864
0.00396855 -0.0414882 0.165177
-0.000156923 0.000802046 0.0526176
0 0 0
0 0 0
0.0273614 -0.0166309 0.558963
-4.55876e-05 0.000127112 0.00606352
-0.046771 0.0933929 0.873005
-0.00436854 0.00640137 0.181519
-0.0276466 -0.0202012 0.19101
-2.19543e-18 -4.19489e-18 7.45862e-17
0.00207539 0.0122845 0.238499
0 0 0
0.00863221 0.0440336 0.302101
0 0 0
0.0264425 0.0616594 0.281946
0.0746706 0.107317 0.515064
-0.00376414 -0.0390641 0.155766
5.61928e-18 -6.54921e-19 -1.27479e-16
0.000160339 0.000795554 0.052382
-4.7287e-18 -9.9436e-18 1.61862e-16
-0.0271129 -0.0168993 0.556412
0.00369701 0.00640097 0.181726
4.52484e-05 0.000125723 0.00606073
0.0466661 0.093652 0.87197
0.0254105 -0.0187813 0.177158
0 0 0
0 0 0
-0.00207784 0.01231 0.238362
-0.00894935 0.0451969 0.302328
-0.0731631 0.106511 0.522383
0 0 0
-0.0266166 0.0621031 0.282042
0 0 0
-0.00889397 -0.0533212 0.0574033
-4.64351e-07 -4.54958e-05 0.000989879
0.0498912 -1.68337 2.30604
4.02545e-18 1.62661e-17 -1.20683e-16
0.00621665 -0.00197338 0.0398355
0 0 0
0 0 0
-6.89724e-07 8.83932e-07 9.21261e-06
-0.100708 0.181035 -0.139367
0.000129836 0.00117051 0.0164543
0 0 0
-0.000221064 0.105703 0.101073
-1.92767e-07 3.87479e-06 1.9251e-05
0 0 0
0 0 0
-0.000169917 8.62491e-05 -1.57012e-05
-1.44723e-05 1.34116e-05 -0.000141358
0 0 0
-0.00344104 0.00216335 -0.00414817
0.0201192 -0.120474 0.129501
0 0 0
-0.00622979 -0.00197657 0.039979
0 0 0
0 0 0
0 0 0
0 0 0
-0.000130157 0.00124498 0.0163607
0 0 0
0 0 0
0.00349637 0.00201019 -0.00384127
0 0 0
0 0 0
0 0 0
0 0 0
0.0039364 0.0225898 0.662854
0 0 0
1.67109e-08 3.62586e-08 -1.80372e-05
-1.83455e-18 -1.3534e-17 -1.01859e-16
4.12719e-06 4.5024e-05 0.00100423
1.15048e-09 5.85223e-11 -6.3131e-07
-1.29086e-06 9.14844e-06 0.000104442
-8.77221e-07 -2.02701e-05 -0.000144758
-0.0691215 0.065565 0.946046
-6.32573e-07 0.000111428 0.00101147
0.00015293 0.13375 0.229115
-1.0627e-06 5.19254e-06 0.00121577
7.40843e-06 5.89405e-05 -8.81702e-05
0 0 0
0 0 0
0 0 0
-0.00394135 0.0226069 0.662298
0 0 0
-2.81572e-06 3.09797e-05 0.000651935
0.07116 0.0674669 0.958107
1.05676e-06 -2.44337e-05 -0.00017421
-0.0327184 -0.0665438 0.319039
-0.00910253 -0.0125322 0.144009
-0.00293487 -0.00308398 0.026784
0 0 0
0 0 0
3.88858e-06 1.74096e-05 0.00031085
-0.00219754 0.00474999 0.101395
0 0 0
3.34872e-05 0.000120625 0.00524299
-2.396e-20 8.92314e-18 5.94908e-17
0.00312274 0.0190993 0.715765
0.000786185 0.00511186 0.0452635
0 0 0
0 0 0
0.00200746 -0.000939588 0.0141768
-0.00201612 -0.000941763 0.0142225
0 0 0
0 0 0
0 0 0
0 0 0
0 0 0
0 0 0